MODEL 1
REMARK VINA RESULT:    -5.981      0.000      0.000
REMARK INTER + INTRA:          -5.981
REMARK INTER:                  -5.981
REMARK INTRA:                   0.000
REMARK UNBOUND:                 0.000
REMARK  Name = 442630
REMARK  2 active torsions:
REMARK  status: ('A' for Active; 'I' for Inactive)
REMARK    1  A    between atoms: C_9  and  C_21
REMARK    2  A    between atoms: C_10  and  C_22
REMARK                            x       y       z     vdW  Elec       q    Type
REMARK                         _______ _______ _______ _____ _____    ______ ____
ROOT
ATOM      1  O   UNL     1       3.600  -2.659   8.242  0.00  0.00    +0.000 OA
ATOM      2  O   UNL     1       0.794  -0.893   1.421  0.00  0.00    +0.000 OA
ATOM      3  O   UNL     1       2.918  -2.701  10.412  0.00  0.00    +0.000 OA
ATOM      4  O   UNL     1      -1.077   0.217   0.736  0.00  0.00    +0.000 OA
ATOM      5  N   UNL     1       0.545  -4.403   6.704  0.00  0.00    +0.000 NA
ATOM      6  N   UNL     1       1.661   1.860   3.939  0.00  0.00    +0.000 NA
ATOM      7  C   UNL     1       1.432  -5.094   5.775  0.00  0.00    +0.000 C 
ATOM      8  C   UNL     1       3.078   1.564   3.774  0.00  0.00    +0.000 C 
ATOM      9  C   UNL     1       1.208  -3.570   7.732  0.00  0.00    +0.000 C 
ATOM     10  C   UNL     1       0.817   0.768   3.418  0.00  0.00    +0.000 C 
ATOM     11  C   UNL     1       2.752  -3.602   7.566  0.00  0.00    +0.000 C 
ATOM     12  C   UNL     1       1.494   0.082   2.193  0.00  0.00    +0.000 C 
ATOM     13  C   UNL     1       2.520  -5.887   6.534  0.00  0.00    +0.000 C 
ATOM     14  C   UNL     1       3.434   1.693   2.279  0.00  0.00    +0.000 C 
ATOM     15  C   UNL     1       3.306  -5.018   7.538  0.00  0.00    +0.000 C 
ATOM     16  C   UNL     1       2.365   1.029   1.369  0.00  0.00    +0.000 C 
ATOM     17  C   UNL     1       0.614  -5.982   4.826  0.00  0.00    +0.000 C 
ATOM     18  C   UNL     1       3.907   2.427   4.722  0.00  0.00    +0.000 C 
ATOM     19  C   UNL     1      -0.741  -5.452   4.306  0.00  0.00    +0.000 C 
ATOM     20  C   UNL     1       3.365   2.606   6.161  0.00  0.00    +0.000 C 
ATOM     21  C   UNL     1       0.617  -4.034   9.061  0.00  0.00    +0.000 C 
ATOM     22  C   UNL     1      -0.587   1.347   3.308  0.00  0.00    +0.000 C 
ATOM     23  C   UNL     1      -1.051  -3.951   4.215  0.00  0.00    +0.000 C 
ATOM     24  C   UNL     1       2.455   1.557   6.827  0.00  0.00    +0.000 C 
ATOM     25  C   UNL     1       0.031  -3.010   3.701  0.00  0.00    +0.000 C 
ATOM     26  C   UNL     1       2.776   0.072   6.665  0.00  0.00    +0.000 C 
ATOM     27  C   UNL     1       0.720  -3.459   2.418  0.00  0.00    +0.000 C 
ATOM     28  C   UNL     1       4.234  -0.305   6.890  0.00  0.00    +0.000 C 
ATOM     29  C   UNL     1      -0.139  -3.398   1.144  0.00  0.00    +0.000 C 
ATOM     30  C   UNL     1       4.728  -0.185   8.338  0.00  0.00    +0.000 C 
ATOM     31  C   UNL     1       3.403  -2.130   9.451  0.00  0.00    +0.000 C 
ATOM     32  C   UNL     1      -0.478  -0.818   0.987  0.00  0.00    +0.000 C 
ATOM     33  C   UNL     1       3.781  -0.652   9.453  0.00  0.00    +0.000 C 
ATOM     34  C   UNL     1      -1.098  -2.200   0.972  0.00  0.00    +0.000 C 
ATOM     35  H   UNL     1      -0.105  -5.064   7.125  0.00  0.00    +0.000 HD
ATOM     36  H   UNL     1       1.439   2.738   3.466  0.00  0.00    +0.000 HD
ENDROOT
TORSDOF 0
ENDMDL
MODEL 2
REMARK VINA RESULT:    -5.871      0.290      8.151
REMARK INTER + INTRA:          -5.871
REMARK INTER:                  -5.871
REMARK INTRA:                   0.000
REMARK UNBOUND:                 0.000
REMARK  Name = 442630
REMARK  2 active torsions:
REMARK  status: ('A' for Active; 'I' for Inactive)
REMARK    1  A    between atoms: C_9  and  C_21
REMARK    2  A    between atoms: C_10  and  C_22
REMARK                            x       y       z     vdW  Elec       q    Type
REMARK                         _______ _______ _______ _____ _____    ______ ____
ROOT
ATOM      1  O   UNL     1       0.811  -0.891   1.395  0.00  0.00    +0.000 OA
ATOM      2  O   UNL     1       3.563  -2.656   8.239  0.00  0.00    +0.000 OA
ATOM      3  O   UNL     1      -1.008   0.139   0.498  0.00  0.00    +0.000 OA
ATOM      4  O   UNL     1       2.659  -2.680  10.333  0.00  0.00    +0.000 OA
ATOM      5  N   UNL     1       1.620   1.729   4.081  0.00  0.00    +0.000 NA
ATOM      6  N   UNL     1       0.578  -4.571   6.789  0.00  0.00    +0.000 NA
ATOM      7  C   UNL     1       3.041   1.512   3.837  0.00  0.00    +0.000 C 
ATOM      8  C   UNL     1       1.450  -5.174   5.790  0.00  0.00    +0.000 C 
ATOM      9  C   UNL     1       0.692   1.003   3.186  0.00  0.00    +0.000 C 
ATOM     10  C   UNL     1       1.211  -3.397   7.422  0.00  0.00    +0.000 C 
ATOM     11  C   UNL     1       1.470   0.123   2.170  0.00  0.00    +0.000 C 
ATOM     12  C   UNL     1       2.755  -3.587   7.518  0.00  0.00    +0.000 C 
ATOM     13  C   UNL     1       3.390   1.743   2.350  0.00  0.00    +0.000 C 
ATOM     14  C   UNL     1       2.601  -5.899   6.518  0.00  0.00    +0.000 C 
ATOM     15  C   UNL     1       2.511   0.914   1.390  0.00  0.00    +0.000 C 
ATOM     16  C   UNL     1       3.181  -5.046   7.679  0.00  0.00    +0.000 C 
ATOM     17  C   UNL     1       3.879   2.389   4.780  0.00  0.00    +0.000 C 
ATOM     18  C   UNL     1       0.632  -6.038   4.835  0.00  0.00    +0.000 C 
ATOM     19  C   UNL     1       3.394   2.580   6.234  0.00  0.00    +0.000 C 
ATOM     20  C   UNL     1      -0.727  -5.466   4.362  0.00  0.00    +0.000 C 
ATOM     21  C   UNL     1      -0.250   2.073   2.638  0.00  0.00    +0.000 C 
ATOM     22  C   UNL     1       0.384  -3.102   8.666  0.00  0.00    +0.000 C 
ATOM     23  C   UNL     1       2.493   1.554   6.937  0.00  0.00    +0.000 C 
ATOM     24  C   UNL     1      -0.999  -3.952   4.301  0.00  0.00    +0.000 C 
ATOM     25  C   UNL     1       2.788   0.071   6.747  0.00  0.00    +0.000 C 
ATOM     26  C   UNL     1       0.079  -3.017   3.756  0.00  0.00    +0.000 C 
ATOM     27  C   UNL     1       4.246  -0.326   6.939  0.00  0.00    +0.000 C 
ATOM     28  C   UNL     1       0.733  -3.468   2.457  0.00  0.00    +0.000 C 
ATOM     29  C   UNL     1       4.771  -0.260   8.382  0.00  0.00    +0.000 C 
ATOM     30  C   UNL     1      -0.169  -3.423   1.216  0.00  0.00    +0.000 C 
ATOM     31  C   UNL     1      -0.435  -0.851   0.919  0.00  0.00    +0.000 C 
ATOM     32  C   UNL     1       3.304  -2.132   9.450  0.00  0.00    +0.000 C 
ATOM     33  C   UNL     1      -1.103  -2.215   1.060  0.00  0.00    +0.000 C 
ATOM     34  C   UNL     1       3.829  -0.713   9.519  0.00  0.00    +0.000 C 
ATOM     35  H   UNL     1       1.416   2.727   4.097  0.00  0.00    +0.000 HD
ATOM     36  H   UNL     1       0.336  -5.268   7.496  0.00  0.00    +0.000 HD
ENDROOT
TORSDOF 0
ENDMDL
MODEL 3
REMARK VINA RESULT:    -5.853     10.763     14.111
REMARK INTER + INTRA:          -5.853
REMARK INTER:                  -5.853
REMARK INTRA:                   0.000
REMARK UNBOUND:                 0.000
REMARK  Name = 442630
REMARK  2 active torsions:
REMARK  status: ('A' for Active; 'I' for Inactive)
REMARK    1  A    between atoms: C_9  and  C_21
REMARK    2  A    between atoms: C_10  and  C_22
REMARK                            x       y       z     vdW  Elec       q    Type
REMARK                         _______ _______ _______ _____ _____    ______ ____
ROOT
ATOM      1  O   UNL     1       6.073  -7.790  -5.601  0.00  0.00    +0.000 OA
ATOM      2  O   UNL     1       3.475  -1.122  -8.112  0.00  0.00    +0.000 OA
ATOM      3  O   UNL     1       8.048  -8.910  -5.457  0.00  0.00    +0.000 OA
ATOM      4  O   UNL     1       4.367   0.511  -9.431  0.00  0.00    +0.000 OA
ATOM      5  N   UNL     1       7.293  -4.409  -4.252  0.00  0.00    +0.000 NA
ATOM      6  N   UNL     1       4.511  -3.861 -10.583  0.00  0.00    +0.000 NA
ATOM      7  C   UNL     1       6.022  -4.250  -3.558  0.00  0.00    +0.000 C 
ATOM      8  C   UNL     1       3.363  -4.661 -10.176  0.00  0.00    +0.000 C 
ATOM      9  C   UNL     1       7.494  -5.702  -4.945  0.00  0.00    +0.000 C 
ATOM     10  C   UNL     1       4.791  -2.786  -9.611  0.00  0.00    +0.000 C 
ATOM     11  C   UNL     1       6.249  -6.617  -4.790  0.00  0.00    +0.000 C 
ATOM     12  C   UNL     1       3.472  -2.270  -8.962  0.00  0.00    +0.000 C 
ATOM     13  C   UNL     1       5.750  -5.446  -2.618  0.00  0.00    +0.000 C 
ATOM     14  C   UNL     1       2.084  -3.824 -10.385  0.00  0.00    +0.000 C 
ATOM     15  C   UNL     1       5.843  -6.808  -3.336  0.00  0.00    +0.000 C 
ATOM     16  C   UNL     1       2.260  -2.364  -9.888  0.00  0.00    +0.000 C 
ATOM     17  C   UNL     1       5.989  -2.903  -2.819  0.00  0.00    +0.000 C 
ATOM     18  C   UNL     1       3.386  -6.010 -10.889  0.00  0.00    +0.000 C 
ATOM     19  C   UNL     1       6.623  -1.672  -3.503  0.00  0.00    +0.000 C 
ATOM     20  C   UNL     1       4.760  -6.717 -11.007  0.00  0.00    +0.000 C 
ATOM     21  C   UNL     1       8.837  -6.221  -4.436  0.00  0.00    +0.000 C 
ATOM     22  C   UNL     1       5.738  -1.827 -10.318  0.00  0.00    +0.000 C 
ATOM     23  C   UNL     1       6.769  -1.569  -5.028  0.00  0.00    +0.000 C 
ATOM     24  C   UNL     1       5.894  -6.470  -9.996  0.00  0.00    +0.000 C 
ATOM     25  C   UNL     1       5.612  -2.031  -5.906  0.00  0.00    +0.000 C 
ATOM     26  C   UNL     1       5.568  -6.397  -8.504  0.00  0.00    +0.000 C 
ATOM     27  C   UNL     1       4.242  -1.506  -5.495  0.00  0.00    +0.000 C 
ATOM     28  C   UNL     1       4.657  -7.500  -7.985  0.00  0.00    +0.000 C 
ATOM     29  C   UNL     1       4.005  -0.005  -5.727  0.00  0.00    +0.000 C 
ATOM     30  C   UNL     1       5.276  -8.904  -7.952  0.00  0.00    +0.000 C 
ATOM     31  C   UNL     1       7.031  -8.601  -6.053  0.00  0.00    +0.000 C 
ATOM     32  C   UNL     1       4.112   0.042  -8.331  0.00  0.00    +0.000 C 
ATOM     33  C   UNL     1       6.735  -9.027  -7.487  0.00  0.00    +0.000 C 
ATOM     34  C   UNL     1       4.576   0.630  -7.014  0.00  0.00    +0.000 C 
ATOM     35  H   UNL     1       8.066  -4.203  -3.621  0.00  0.00    +0.000 HD
ATOM     36  H   UNL     1       4.340  -3.467 -11.509  0.00  0.00    +0.000 HD
ENDROOT
TORSDOF 0
ENDMDL
MODEL 4
REMARK VINA RESULT:    -5.782     10.548     14.073
REMARK INTER + INTRA:          -5.782
REMARK INTER:                  -5.782
REMARK INTRA:                   0.000
REMARK UNBOUND:                 0.000
REMARK  Name = 442630
REMARK  2 active torsions:
REMARK  status: ('A' for Active; 'I' for Inactive)
REMARK    1  A    between atoms: C_9  and  C_21
REMARK    2  A    between atoms: C_10  and  C_22
REMARK                            x       y       z     vdW  Elec       q    Type
REMARK                         _______ _______ _______ _____ _____    ______ ____
ROOT
ATOM      1  O   UNL     1       6.601  -3.066  -9.443  0.00  0.00    +0.000 OA
ATOM      2  O   UNL     1       3.485  -7.029  -3.778  0.00  0.00    +0.000 OA
ATOM      3  O   UNL     1       8.673  -2.518 -10.208  0.00  0.00    +0.000 OA
ATOM      4  O   UNL     1       4.308  -7.902  -1.838  0.00  0.00    +0.000 OA
ATOM      5  N   UNL     1       7.222  -6.815  -8.904  0.00  0.00    +0.000 NA
ATOM      6  N   UNL     1       5.135  -3.638  -3.101  0.00  0.00    +0.000 NA
ATOM      7  C   UNL     1       5.869  -7.087  -9.375  0.00  0.00    +0.000 C 
ATOM      8  C   UNL     1       4.059  -2.971  -3.822  0.00  0.00    +0.000 C 
ATOM      9  C   UNL     1       7.662  -5.404  -8.981  0.00  0.00    +0.000 C 
ATOM     10  C   UNL     1       5.164  -5.085  -3.392  0.00  0.00    +0.000 C 
ATOM     11  C   UNL     1       6.534  -4.497  -9.542  0.00  0.00    +0.000 C 
ATOM     12  C   UNL     1       3.725  -5.628  -3.639  0.00  0.00    +0.000 C 
ATOM     13  C   UNL     1       5.644  -6.498 -10.786  0.00  0.00    +0.000 C 
ATOM     14  C   UNL     1       2.717  -3.362  -3.170  0.00  0.00    +0.000 C 
ATOM     15  C   UNL     1       5.991  -4.997 -10.873  0.00  0.00    +0.000 C 
ATOM     16  C   UNL     1       2.648  -4.881  -2.852  0.00  0.00    +0.000 C 
ATOM     17  C   UNL     1       5.582  -8.594  -9.315  0.00  0.00    +0.000 C 
ATOM     18  C   UNL     1       4.335  -1.472  -3.904  0.00  0.00    +0.000 C 
ATOM     19  C   UNL     1       6.129  -9.402  -8.117  0.00  0.00    +0.000 C 
ATOM     20  C   UNL     1       5.791  -1.044  -4.213  0.00  0.00    +0.000 C 
ATOM     21  C   UNL     1       8.992  -5.444  -9.729  0.00  0.00    +0.000 C 
ATOM     22  C   UNL     1       6.057  -5.703  -2.324  0.00  0.00    +0.000 C 
ATOM     23  C   UNL     1       6.434  -8.749  -6.762  0.00  0.00    +0.000 C 
ATOM     24  C   UNL     1       6.762  -1.950  -4.991  0.00  0.00    +0.000 C 
ATOM     25  C   UNL     1       5.453  -7.723  -6.207  0.00  0.00    +0.000 C 
ATOM     26  C   UNL     1       6.261  -2.706  -6.221  0.00  0.00    +0.000 C 
ATOM     27  C   UNL     1       3.989  -8.144  -6.244  0.00  0.00    +0.000 C 
ATOM     28  C   UNL     1       5.443  -1.878  -7.202  0.00  0.00    +0.000 C 
ATOM     29  C   UNL     1       3.593  -9.263  -5.267  0.00  0.00    +0.000 C 
ATOM     30  C   UNL     1       6.227  -0.807  -7.973  0.00  0.00    +0.000 C 
ATOM     31  C   UNL     1       7.701  -2.311  -9.504  0.00  0.00    +0.000 C 
ATOM     32  C   UNL     1       3.990  -8.014  -3.013  0.00  0.00    +0.000 C 
ATOM     33  C   UNL     1       7.626  -1.180  -8.483  0.00  0.00    +0.000 C 
ATOM     34  C   UNL     1       4.222  -9.251  -3.856  0.00  0.00    +0.000 C 
ATOM     35  H   UNL     1       7.884  -7.437  -9.365  0.00  0.00    +0.000 HD
ATOM     36  H   UNL     1       5.024  -3.479  -2.099  0.00  0.00    +0.000 HD
ENDROOT
TORSDOF 0
ENDMDL
MODEL 5
REMARK VINA RESULT:    -5.655      8.274     11.416
REMARK INTER + INTRA:          -5.655
REMARK INTER:                  -5.655
REMARK INTRA:                   0.000
REMARK UNBOUND:                 0.000
REMARK  Name = 442630
REMARK  2 active torsions:
REMARK  status: ('A' for Active; 'I' for Inactive)
REMARK    1  A    between atoms: C_9  and  C_21
REMARK    2  A    between atoms: C_10  and  C_22
REMARK                            x       y       z     vdW  Elec       q    Type
REMARK                         _______ _______ _______ _____ _____    ______ ____
ROOT
ATOM      1  O   UNL     1       7.737   6.648   2.804  0.00  0.00    +0.000 OA
ATOM      2  O   UNL     1       6.641   5.291  -4.577  0.00  0.00    +0.000 OA
ATOM      3  O   UNL     1       6.868   7.959   4.448  0.00  0.00    +0.000 OA
ATOM      4  O   UNL     1       5.468   6.367  -6.211  0.00  0.00    +0.000 OA
ATOM      5  N   UNL     1       4.423   5.347   1.370  0.00  0.00    +0.000 NA
ATOM      6  N   UNL     1       8.276   8.558  -3.422  0.00  0.00    +0.000 NA
ATOM      7  C   UNL     1       5.046   4.047   1.161  0.00  0.00    +0.000 C 
ATOM      8  C   UNL     1       9.459   7.817  -3.004  0.00  0.00    +0.000 C 
ATOM      9  C   UNL     1       5.252   6.358   2.063  0.00  0.00    +0.000 C 
ATOM     10  C   UNL     1       7.122   7.661  -3.627  0.00  0.00    +0.000 C 
ATOM     11  C   UNL     1       6.658   5.791   2.400  0.00  0.00    +0.000 C 
ATOM     12  C   UNL     1       7.590   6.270  -4.151  0.00  0.00    +0.000 C 
ATOM     13  C   UNL     1       5.630   3.493   2.480  0.00  0.00    +0.000 C 
ATOM     14  C   UNL     1       9.996   7.028  -4.216  0.00  0.00    +0.000 C 
ATOM     15  C   UNL     1       6.589   4.483   3.175  0.00  0.00    +0.000 C 
ATOM     16  C   UNL     1       8.854   6.334  -5.008  0.00  0.00    +0.000 C 
ATOM     17  C   UNL     1       4.046   3.079   0.511  0.00  0.00    +0.000 C 
ATOM     18  C   UNL     1      10.460   8.760  -2.342  0.00  0.00    +0.000 C 
ATOM     19  C   UNL     1       3.087   3.627  -0.570  0.00  0.00    +0.000 C 
ATOM     20  C   UNL     1       9.886   9.820  -1.370  0.00  0.00    +0.000 C 
ATOM     21  C   UNL     1       4.384   6.862   3.214  0.00  0.00    +0.000 C 
ATOM     22  C   UNL     1       6.095   8.478  -4.399  0.00  0.00    +0.000 C 
ATOM     23  C   UNL     1       3.425   4.868  -1.409  0.00  0.00    +0.000 C 
ATOM     24  C   UNL     1       8.563   9.603  -0.613  0.00  0.00    +0.000 C 
ATOM     25  C   UNL     1       4.844   5.029  -1.938  0.00  0.00    +0.000 C 
ATOM     26  C   UNL     1       8.269   8.239   0.008  0.00  0.00    +0.000 C 
ATOM     27  C   UNL     1       5.425   3.792  -2.613  0.00  0.00    +0.000 C 
ATOM     28  C   UNL     1       9.414   7.627   0.803  0.00  0.00    +0.000 C 
ATOM     29  C   UNL     1       4.807   3.423  -3.972  0.00  0.00    +0.000 C 
ATOM     30  C   UNL     1       9.756   8.340   2.119  0.00  0.00    +0.000 C 
ATOM     31  C   UNL     1       7.644   7.765   3.528  0.00  0.00    +0.000 C 
ATOM     32  C   UNL     1       5.564   5.497  -5.357  0.00  0.00    +0.000 C 
ATOM     33  C   UNL     1       8.587   8.833   2.984  0.00  0.00    +0.000 C 
ATOM     34  C   UNL     1       4.442   4.570  -4.939  0.00  0.00    +0.000 C 
ATOM     35  H   UNL     1       3.519   5.233   1.825  0.00  0.00    +0.000 HD
ATOM     36  H   UNL     1       8.482   9.074  -4.279  0.00  0.00    +0.000 HD
ENDROOT
TORSDOF 0
ENDMDL
MODEL 6
REMARK VINA RESULT:    -5.577     11.734     15.423
REMARK INTER + INTRA:          -5.577
REMARK INTER:                  -5.577
REMARK INTRA:                   0.000
REMARK UNBOUND:                 0.000
REMARK  Name = 442630
REMARK  2 active torsions:
REMARK  status: ('A' for Active; 'I' for Inactive)
REMARK    1  A    between atoms: C_9  and  C_21
REMARK    2  A    between atoms: C_10  and  C_22
REMARK                            x       y       z     vdW  Elec       q    Type
REMARK                         _______ _______ _______ _____ _____    ______ ____
ROOT
ATOM      1  O   UNL     1       5.329  -3.698 -11.254  0.00  0.00    +0.000 OA
ATOM      2  O   UNL     1       5.760  -6.404  -4.182  0.00  0.00    +0.000 OA
ATOM      3  O   UNL     1       6.563  -2.417 -12.671  0.00  0.00    +0.000 OA
ATOM      4  O   UNL     1       7.102  -5.926  -2.400  0.00  0.00    +0.000 OA
ATOM      5  N   UNL     1       8.149  -6.006 -10.048  0.00  0.00    +0.000 NA
ATOM      6  N   UNL     1       5.048  -2.691  -4.803  0.00  0.00    +0.000 NA
ATOM      7  C   UNL     1       7.210  -7.120 -10.047  0.00  0.00    +0.000 C 
ATOM      8  C   UNL     1       3.733  -3.031  -5.331  0.00  0.00    +0.000 C 
ATOM      9  C   UNL     1       7.629  -4.723 -10.572  0.00  0.00    +0.000 C 
ATOM     10  C   UNL     1       5.929  -3.873  -4.744  0.00  0.00    +0.000 C 
ATOM     11  C   UNL     1       6.140  -4.854 -10.992  0.00  0.00    +0.000 C 
ATOM     12  C   UNL     1       5.106  -5.162  -4.446  0.00  0.00    +0.000 C 
ATOM     13  C   UNL     1       6.557  -7.297 -11.436  0.00  0.00    +0.000 C 
ATOM     14  C   UNL     1       2.969  -3.833  -4.258  0.00  0.00    +0.000 C 
ATOM     15  C   UNL     1       5.907  -6.001 -11.964  0.00  0.00    +0.000 C 
ATOM     16  C   UNL     1       3.867  -4.909  -3.588  0.00  0.00    +0.000 C 
ATOM     17  C   UNL     1       7.908  -8.399  -9.559  0.00  0.00    +0.000 C 
ATOM     18  C   UNL     1       3.030  -1.774  -5.834  0.00  0.00    +0.000 C 
ATOM     19  C   UNL     1       8.931  -8.286  -8.407  0.00  0.00    +0.000 C 
ATOM     20  C   UNL     1       3.890  -0.760  -6.627  0.00  0.00    +0.000 C 
ATOM     21  C   UNL     1       8.640  -4.288 -11.631  0.00  0.00    +0.000 C 
ATOM     22  C   UNL     1       7.098  -3.473  -3.855  0.00  0.00    +0.000 C 
ATOM     23  C   UNL     1       8.885  -7.144  -7.382  0.00  0.00    +0.000 C 
ATOM     24  C   UNL     1       5.143  -1.189  -7.411  0.00  0.00    +0.000 C 
ATOM     25  C   UNL     1       7.533  -6.709  -6.832  0.00  0.00    +0.000 C 
ATOM     26  C   UNL     1       5.108  -2.472  -8.241  0.00  0.00    +0.000 C 
ATOM     27  C   UNL     1       6.633  -7.845  -6.360  0.00  0.00    +0.000 C 
ATOM     28  C   UNL     1       3.877  -2.641  -9.120  0.00  0.00    +0.000 C 
ATOM     29  C   UNL     1       7.084  -8.563  -5.077  0.00  0.00    +0.000 C 
ATOM     30  C   UNL     1       3.777  -1.672 -10.307  0.00  0.00    +0.000 C 
ATOM     31  C   UNL     1       5.729  -2.544 -11.793  0.00  0.00    +0.000 C 
ATOM     32  C   UNL     1       6.822  -6.601  -3.381  0.00  0.00    +0.000 C 
ATOM     33  C   UNL     1       5.066  -1.368 -11.085  0.00  0.00    +0.000 C 
ATOM     34  C   UNL     1       7.689  -7.710  -3.941  0.00  0.00    +0.000 C 
ATOM     35  H   UNL     1       9.012  -6.276 -10.517  0.00  0.00    +0.000 HD
ATOM     36  H   UNL     1       4.946  -2.277  -3.876  0.00  0.00    +0.000 HD
ENDROOT
TORSDOF 0
ENDMDL
MODEL 7
REMARK VINA RESULT:    -5.465      5.586      9.946
REMARK INTER + INTRA:          -5.465
REMARK INTER:                  -5.465
REMARK INTRA:                   0.000
REMARK UNBOUND:                 0.000
REMARK  Name = 442630
REMARK  2 active torsions:
REMARK  status: ('A' for Active; 'I' for Inactive)
REMARK    1  A    between atoms: C_9  and  C_21
REMARK    2  A    between atoms: C_10  and  C_22
REMARK                            x       y       z     vdW  Elec       q    Type
REMARK                         _______ _______ _______ _____ _____    ______ ____
ROOT
ATOM      1  O   UNL     1       6.544   8.290   6.342  0.00  0.00    +0.000 OA
ATOM      2  O   UNL     1       3.916   1.312   7.725  0.00  0.00    +0.000 OA
ATOM      3  O   UNL     1       5.817  10.443   6.453  0.00  0.00    +0.000 OA
ATOM      4  O   UNL     1       1.830   0.469   8.101  0.00  0.00    +0.000 OA
ATOM      5  N   UNL     1       5.312   7.148   9.793  0.00  0.00    +0.000 NA
ATOM      6  N   UNL     1       2.711   3.272   4.662  0.00  0.00    +0.000 NA
ATOM      7  C   UNL     1       6.520   6.345   9.937  0.00  0.00    +0.000 C 
ATOM      8  C   UNL     1       4.030   3.140   4.058  0.00  0.00    +0.000 C 
ATOM      9  C   UNL     1       5.239   7.995   8.582  0.00  0.00    +0.000 C 
ATOM     10  C   UNL     1       2.745   2.973   6.107  0.00  0.00    +0.000 C 
ATOM     11  C   UNL     1       6.501   7.812   7.696  0.00  0.00    +0.000 C 
ATOM     12  C   UNL     1       3.813   1.882   6.420  0.00  0.00    +0.000 C 
ATOM     13  C   UNL     1       7.787   7.216   9.777  0.00  0.00    +0.000 C 
ATOM     14  C   UNL     1       4.380   1.640   3.973  0.00  0.00    +0.000 C 
ATOM     15  C   UNL     1       7.793   8.032   8.468  0.00  0.00    +0.000 C 
ATOM     16  C   UNL     1       4.017   0.884   5.280  0.00  0.00    +0.000 C 
ATOM     17  C   UNL     1       6.494   5.587  11.273  0.00  0.00    +0.000 C 
ATOM     18  C   UNL     1       4.080   3.900   2.736  0.00  0.00    +0.000 C 
ATOM     19  C   UNL     1       5.151   5.003  11.763  0.00  0.00    +0.000 C 
ATOM     20  C   UNL     1       3.402   5.292   2.703  0.00  0.00    +0.000 C 
ATOM     21  C   UNL     1       4.920   9.397   9.097  0.00  0.00    +0.000 C 
ATOM     22  C   UNL     1       1.293   2.784   6.524  0.00  0.00    +0.000 C 
ATOM     23  C   UNL     1       4.013   4.647  10.796  0.00  0.00    +0.000 C 
ATOM     24  C   UNL     1       3.244   6.153   3.969  0.00  0.00    +0.000 C 
ATOM     25  C   UNL     1       4.359   3.951   9.484  0.00  0.00    +0.000 C 
ATOM     26  C   UNL     1       4.405   6.257   4.957  0.00  0.00    +0.000 C 
ATOM     27  C   UNL     1       5.299   2.760   9.615  0.00  0.00    +0.000 C 
ATOM     28  C   UNL     1       5.767   6.522   4.331  0.00  0.00    +0.000 C 
ATOM     29  C   UNL     1       4.704   1.511  10.286  0.00  0.00    +0.000 C 
ATOM     30  C   UNL     1       5.948   7.916   3.713  0.00  0.00    +0.000 C 
ATOM     31  C   UNL     1       5.953   9.386   5.862  0.00  0.00    +0.000 C 
ATOM     32  C   UNL     1       2.903   0.894   8.505  0.00  0.00    +0.000 C 
ATOM     33  C   UNL     1       5.368   9.113   4.480  0.00  0.00    +0.000 C 
ATOM     34  C   UNL     1       3.240   1.140   9.961  0.00  0.00    +0.000 C 
ATOM     35  H   UNL     1       5.151   7.693  10.638  0.00  0.00    +0.000 HD
ATOM     36  H   UNL     1       2.054   2.652   4.186  0.00  0.00    +0.000 HD
ENDROOT
TORSDOF 0
ENDMDL
MODEL 8
REMARK VINA RESULT:    -5.438      4.891      9.000
REMARK INTER + INTRA:          -5.438
REMARK INTER:                  -5.438
REMARK INTRA:                   0.000
REMARK UNBOUND:                 0.000
REMARK  Name = 442630
REMARK  2 active torsions:
REMARK  status: ('A' for Active; 'I' for Inactive)
REMARK    1  A    between atoms: C_9  and  C_21
REMARK    2  A    between atoms: C_10  and  C_22
REMARK                            x       y       z     vdW  Elec       q    Type
REMARK                         _______ _______ _______ _____ _____    ______ ____
ROOT
ATOM      1  O   UNL     1       5.560   8.164   4.616  0.00  0.00    +0.000 OA
ATOM      2  O   UNL     1       1.367   1.844   4.636  0.00  0.00    +0.000 OA
ATOM      3  O   UNL     1       7.741   8.768   4.841  0.00  0.00    +0.000 OA
ATOM      4  O   UNL     1       1.780  -0.309   5.267  0.00  0.00    +0.000 OA
ATOM      5  N   UNL     1       6.071   5.287   2.126  0.00  0.00    +0.000 NA
ATOM      6  N   UNL     1       2.831   3.217   7.899  0.00  0.00    +0.000 NA
ATOM      7  C   UNL     1       4.844   5.684   1.446  0.00  0.00    +0.000 C 
ATOM      8  C   UNL     1       1.922   4.354   7.828  0.00  0.00    +0.000 C 
ATOM      9  C   UNL     1       6.512   6.169   3.230  0.00  0.00    +0.000 C 
ATOM     10  C   UNL     1       2.924   2.518   6.602  0.00  0.00    +0.000 C 
ATOM     11  C   UNL     1       5.519   7.344   3.436  0.00  0.00    +0.000 C 
ATOM     12  C   UNL     1       1.568   2.587   5.839  0.00  0.00    +0.000 C 
ATOM     13  C   UNL     1       4.910   7.162   1.000  0.00  0.00    +0.000 C 
ATOM     14  C   UNL     1       0.477   3.821   7.751  0.00  0.00    +0.000 C 
ATOM     15  C   UNL     1       5.261   8.123   2.155  0.00  0.00    +0.000 C 
ATOM     16  C   UNL     1       0.350   2.630   6.762  0.00  0.00    +0.000 C 
ATOM     17  C   UNL     1       4.557   4.731   0.276  0.00  0.00    +0.000 C 
ATOM     18  C   UNL     1       2.203   5.321   8.975  0.00  0.00    +0.000 C 
ATOM     19  C   UNL     1       4.851   3.225   0.463  0.00  0.00    +0.000 C 
ATOM     20  C   UNL     1       3.689   5.598   9.309  0.00  0.00    +0.000 C 
ATOM     21  C   UNL     1       7.968   6.504   2.912  0.00  0.00    +0.000 C 
ATOM     22  C   UNL     1       3.583   1.178   6.901  0.00  0.00    +0.000 C 
ATOM     23  C   UNL     1       4.870   2.562   1.848  0.00  0.00    +0.000 C 
ATOM     24  C   UNL     1       4.802   5.465   8.253  0.00  0.00    +0.000 C 
ATOM     25  C   UNL     1       3.792   2.943   2.856  0.00  0.00    +0.000 C 
ATOM     26  C   UNL     1       4.566   5.999   6.841  0.00  0.00    +0.000 C 
ATOM     27  C   UNL     1       2.369   2.933   2.313  0.00  0.00    +0.000 C 
ATOM     28  C   UNL     1       3.963   7.394   6.768  0.00  0.00    +0.000 C 
ATOM     29  C   UNL     1       1.785   1.545   1.999  0.00  0.00    +0.000 C 
ATOM     30  C   UNL     1       4.884   8.534   7.226  0.00  0.00    +0.000 C 
ATOM     31  C   UNL     1       6.645   8.516   5.308  0.00  0.00    +0.000 C 
ATOM     32  C   UNL     1       1.709   0.563   4.412  0.00  0.00    +0.000 C 
ATOM     33  C   UNL     1       6.359   8.467   6.806  0.00  0.00    +0.000 C 
ATOM     34  C   UNL     1       2.113   0.384   2.963  0.00  0.00    +0.000 C 
ATOM     35  H   UNL     1       6.816   5.141   1.447  0.00  0.00    +0.000 HD
ATOM     36  H   UNL     1       2.516   2.574   8.627  0.00  0.00    +0.000 HD
ENDROOT
TORSDOF 0
ENDMDL
MODEL 9
REMARK VINA RESULT:    -5.437      5.153      7.583
REMARK INTER + INTRA:          -5.437
REMARK INTER:                  -5.437
REMARK INTRA:                   0.000
REMARK UNBOUND:                 0.000
REMARK  Name = 442630
REMARK  2 active torsions:
REMARK  status: ('A' for Active; 'I' for Inactive)
REMARK    1  A    between atoms: C_9  and  C_21
REMARK    2  A    between atoms: C_10  and  C_22
REMARK                            x       y       z     vdW  Elec       q    Type
REMARK                         _______ _______ _______ _____ _____    ______ ____
ROOT
ATOM      1  O   UNL     1       4.841   4.849   9.642  0.00  0.00    +0.000 OA
ATOM      2  O   UNL     1       5.657   4.987   2.103  0.00  0.00    +0.000 OA
ATOM      3  O   UNL     1       3.215   5.211  11.191  0.00  0.00    +0.000 OA
ATOM      4  O   UNL     1       4.377   5.809   0.403  0.00  0.00    +0.000 OA
ATOM      5  N   UNL     1       2.804   2.632   7.260  0.00  0.00    +0.000 NA
ATOM      6  N   UNL     1       5.346   8.251   4.085  0.00  0.00    +0.000 NA
ATOM      7  C   UNL     1       3.995   1.824   7.027  0.00  0.00    +0.000 C 
ATOM      8  C   UNL     1       6.660   8.020   4.671  0.00  0.00    +0.000 C 
ATOM      9  C   UNL     1       2.937   3.700   8.276  0.00  0.00    +0.000 C 
ATOM     10  C   UNL     1       4.804   7.022   3.474  0.00  0.00    +0.000 C 
ATOM     11  C   UNL     1       4.374   3.735   8.864  0.00  0.00    +0.000 C 
ATOM     12  C   UNL     1       5.949   6.144   2.887  0.00  0.00    +0.000 C 
ATOM     13  C   UNL     1       4.563   1.276   8.355  0.00  0.00    +0.000 C 
ATOM     14  C   UNL     1       7.684   7.861   3.529  0.00  0.00    +0.000 C 
ATOM     15  C   UNL     1       4.818   2.382   9.401  0.00  0.00    +0.000 C 
ATOM     16  C   UNL     1       7.144   6.956   2.388  0.00  0.00    +0.000 C 
ATOM     17  C   UNL     1       3.686   0.708   6.017  0.00  0.00    +0.000 C 
ATOM     18  C   UNL     1       6.979   9.111   5.689  0.00  0.00    +0.000 C 
ATOM     19  C   UNL     1       2.759   1.030   4.823  0.00  0.00    +0.000 C 
ATOM     20  C   UNL     1       5.830   9.546   6.632  0.00  0.00    +0.000 C 
ATOM     21  C   UNL     1       1.771   3.482   9.237  0.00  0.00    +0.000 C 
ATOM     22  C   UNL     1       3.642   7.474   2.599  0.00  0.00    +0.000 C 
ATOM     23  C   UNL     1       2.589   2.457   4.282  0.00  0.00    +0.000 C 
ATOM     24  C   UNL     1       4.671   8.601   6.999  0.00  0.00    +0.000 C 
ATOM     25  C   UNL     1       3.824   3.340   4.149  0.00  0.00    +0.000 C 
ATOM     26  C   UNL     1       4.970   7.138   7.324  0.00  0.00    +0.000 C 
ATOM     27  C   UNL     1       5.017   2.682   3.467  0.00  0.00    +0.000 C 
ATOM     28  C   UNL     1       6.133   6.911   8.280  0.00  0.00    +0.000 C 
ATOM     29  C   UNL     1       4.864   2.424   1.960  0.00  0.00    +0.000 C 
ATOM     30  C   UNL     1       5.891   7.358   9.729  0.00  0.00    +0.000 C 
ATOM     31  C   UNL     1       4.119   5.602  10.474  0.00  0.00    +0.000 C 
ATOM     32  C   UNL     1       4.744   4.889   1.119  0.00  0.00    +0.000 C 
ATOM     33  C   UNL     1       4.512   7.070  10.340  0.00  0.00    +0.000 C 
ATOM     34  C   UNL     1       4.149   3.496   1.108  0.00  0.00    +0.000 C 
ATOM     35  H   UNL     1       2.006   2.030   7.457  0.00  0.00    +0.000 HD
ATOM     36  H   UNL     1       5.409   8.996   3.390  0.00  0.00    +0.000 HD
ENDROOT
TORSDOF 0
ENDMDL
