REMARK  Name = 442630
REMARK  2 active torsions:
REMARK  status: ('A' for Active; 'I' for Inactive)
REMARK    1  A    between atoms: C_9  and  C_21
REMARK    2  A    between atoms: C_10  and  C_22
REMARK                            x       y       z     vdW  Elec       q    Type
REMARK                         _______ _______ _______ _____ _____    ______ ____
ROOT
ATOM      1  O   UNL     1       2.124  -2.848   0.043  0.00  0.00    +0.000 OA
ATOM      2  O   UNL     1      -2.072   3.372   1.148  0.00  0.00    +0.000 OA
ATOM      3  O   UNL     1       3.074  -3.984  -1.684  0.00  0.00    +0.000 OA
ATOM      4  O   UNL     1      -3.255   4.733  -0.249  0.00  0.00    +0.000 OA
ATOM      5  N   UNL     1       3.274   0.675  -0.957  0.00  0.00    +0.000 NA
ATOM      6  N   UNL     1      -3.625   0.227  -0.393  0.00  0.00    +0.000 NA
ATOM      7  C   UNL     1       3.481   0.986   0.452  0.00  0.00    +0.000 C 
ATOM      8  C   UNL     1      -3.502  -0.460   0.886  0.00  0.00    +0.000 C 
ATOM      9  C   UNL     1       2.888  -0.721  -1.261  0.00  0.00    +0.000 C 
ATOM     10  C   UNL     1      -2.788   1.442  -0.436  0.00  0.00    +0.000 C 
ATOM     11  C   UNL     1       2.762  -1.561   0.039  0.00  0.00    +0.000 C 
ATOM     12  C   UNL     1      -2.693   2.098   0.974  0.00  0.00    +0.000 C 
ATOM     13  C   UNL     1       4.448  -0.026   1.107  0.00  0.00    +0.000 C 
ATOM     14  C   UNL     1      -4.242   0.366   1.958  0.00  0.00    +0.000 C 
ATOM     15  C   UNL     1       4.013  -1.492   0.902  0.00  0.00    +0.000 C 
ATOM     16  C   UNL     1      -3.940   1.884   1.831  0.00  0.00    +0.000 C 
ATOM     17  C   UNL     1       3.957   2.438   0.608  0.00  0.00    +0.000 C 
ATOM     18  C   UNL     1      -3.957  -1.910   0.747  0.00  0.00    +0.000 C 
ATOM     19  C   UNL     1       3.342   3.518  -0.310  0.00  0.00    +0.000 C 
ATOM     20  C   UNL     1      -3.510  -2.665  -0.529  0.00  0.00    +0.000 C 
ATOM     21  C   UNL     1       3.881  -1.185  -2.324  0.00  0.00    +0.000 C 
ATOM     22  C   UNL     1      -3.281   2.241  -1.635  0.00  0.00    +0.000 C 
ATOM     23  C   UNL     1       1.952   3.358  -0.942  0.00  0.00    +0.000 C 
ATOM     24  C   UNL     1      -2.232  -2.284  -1.298  0.00  0.00    +0.000 C 
ATOM     25  C   UNL     1       0.823   2.788  -0.092  0.00  0.00    +0.000 C 
ATOM     26  C   UNL     1      -0.959  -1.951  -0.521  0.00  0.00    +0.000 C 
ATOM     27  C   UNL     1       0.678   3.413   1.290  0.00  0.00    +0.000 C 
ATOM     28  C   UNL     1      -0.608  -2.924   0.596  0.00  0.00    +0.000 C 
ATOM     29  C   UNL     1       0.159   4.860   1.316  0.00  0.00    +0.000 C 
ATOM     30  C   UNL     1      -0.163  -4.320   0.137  0.00  0.00    +0.000 C 
ATOM     31  C   UNL     1       2.138  -3.751  -0.940  0.00  0.00    +0.000 C 
ATOM     32  C   UNL     1      -2.242   4.464   0.381  0.00  0.00    +0.000 C 
ATOM     33  C   UNL     1       0.767  -4.404  -1.082  0.00  0.00    +0.000 C 
ATOM     34  C   UNL     1      -0.950   5.252   0.315  0.00  0.00    +0.000 C 
ATOM     35  H   UNL     1       4.085   0.963  -1.502  0.00  0.00    +0.000 HD
ATOM     36  H   UNL     1      -4.604   0.464  -0.560  0.00  0.00    +0.000 HD
ENDROOT
TORSDOF 0
